<VTKFile type="PolyData" version="1.0" byte_order="LittleEndian" header_type="UInt64">
  <PolyData>
    <Piece NumberOfPoints="2500" NumberOfVerts="0" NumberOfLines="0" NumberOfStrips="0" NumberOfPolys="2401">
      <PointData>
        <DataArray type="Float32" Name="zvalue" NumberOfComponents="1" format="ascii" RangeMin="0.030649321153759956" RangeMax="12.957159042358398">
          3.1915972232818604 2.934494972229004 2.6963846683502197 2.472355604171753 2.262178659439087 2.0692834854125977
          1.9053220748901367 1.7835888862609863 1.7176741361618042 1.703530192375183 1.7187995910644531 1.7575430870056152
          1.815033197402954 1.8861783742904663 1.9670432806015015 2.0562551021575928 2.1562118530273438 2.2646851539611816
          2.3800299167633057 2.5002939701080322 2.6248457431793213 2.747758626937866 2.867025852203369 2.9842369556427
          3.0986428260803223 3.205264091491699 3.301982879638672 3.392064094543457 3.4747073650360107 3.5556063652038574
          3.636143445968628 3.7159855365753174 3.7919023036956787 3.8664209842681885 3.9376847743988037 4.0037617683410645
          4.065973281860352 4.123626232147217 4.181087017059326 4.241982460021973 4.304896831512451 4.3684821128845215
          4.433681011199951 4.498710632324219 4.565441608428955 4.637845993041992 4.716388702392578 4.797983169555664
          4.880916118621826 4.97494649887085 3.184713840484619 2.916450023651123 2.6692352294921875 2.4371817111968994
          2.2240798473358154 2.028736114501953 1.8586527109146118 1.7234175205230713 1.6386483907699585 1.6044596433639526
          1.6018742322921753 1.6268925666809082 1.6758534908294678 1.7406203746795654 1.8153369426727295 1.8992193937301636
          1.9935564994812012 2.096527099609375 2.205270528793335 2.3192262649536133 2.435610771179199 2.55190372467041
          2.664271831512451 2.7755091190338135 2.884129047393799 2.9839417934417725 3.0742862224578857 3.1581761837005615
          3.237067699432373 3.313588857650757 3.3890187740325928 3.4648823738098145 3.538649797439575 3.6124565601348877
          3.682159900665283 3.7483975887298584 3.8081533908843994 3.865387439727783 3.9215941429138184 3.981433629989624
          4.043309688568115 4.105018615722656 4.169493198394775 4.234806060791016 4.302434921264648 4.376928329467773
          4.455084323883057 4.536276817321777 4.624015808105469 4.722072124481201 3.1873552799224854 2.905681610107422
          2.6475095748901367 2.408040761947632 2.1895182132720947 1.9891005754470825 1.8132421970367432 1.6689703464508057
          1.5690207481384277 1.513695240020752 1.4956283569335938 1.506987452507019 1.5430525541305542 1.597922921180725
          1.6654911041259766 1.7440547943115234 1.834354281425476 1.9328362941741943 2.0370614528656006 2.14601469039917
          2.253723621368408 2.3628134727478027 2.4708011150360107 2.5759825706481934 2.6774356365203857 2.7712979316711426
          2.855292558670044 2.9337499141693115 3.0091309547424316 3.0803422927856445 3.1522276401519775 3.223649740219116
          3.292966604232788 3.3633904457092285 3.433297634124756 3.4979259967803955 3.5567073822021484 3.610790252685547
          3.665933847427368 3.726318359375 3.789527654647827 3.852452039718628 3.9180471897125244 3.9834017753601074
          4.052278995513916 4.126611232757568 4.203858852386475 4.288826942443848 4.383436679840088 4.485596656799316
          3.1992359161376953 2.906156539916992 2.6365861892700195 2.3849446773529053 2.156996488571167 1.950405478477478
          1.768682837486267 1.6196728944778442 1.5068268775939941 1.4321993589401245 1.3994415998458862 1.3968679904937744
          1.4197537899017334 1.463443398475647 1.5215305089950562 1.5937118530273438 1.6777299642562866 1.7708187103271484
          1.8704485893249512 1.9736417531967163 2.0755786895751953 2.179774761199951 2.283621311187744 2.3842642307281494
          2.4778382778167725 2.566190481185913 2.646634578704834 2.721576690673828 2.7907094955444336 2.857063055038452
          2.925145387649536 2.99135684967041 3.055753469467163 3.121398448944092 3.187791347503662 3.2504777908325195
          3.308711051940918 3.3610870838165283 3.41811203956604 3.4807982444763184 3.5445008277893066 3.6085095405578613
          3.673386573791504 3.739222526550293 3.808950185775757 3.8848791122436523 3.9642345905303955 4.054364204406738
          4.154870510101318 4.260702610015869 3.2188000679016113 2.9134819507598877 2.6315126419067383 2.3663039207458496
          2.1273138523101807 1.9130127429962158 1.724775791168213 1.5716159343719482 1.4473477602005005 1.3564975261688232
          1.3085418939590454 1.294699788093567 1.3047021627426147 1.335270643234253 1.3830549716949463 1.447858452796936
          1.5262936353683472 1.6142686605453491 1.7086262702941895 1.8041841983795166 1.9013665914535522 2.000070333480835
          2.0989270210266113 2.1939287185668945 2.2831387519836426 2.368516206741333 2.445253372192383 2.5145304203033447
          2.580008029937744 2.642944097518921 2.705538272857666 2.7665486335754395 2.82666015625 2.887132167816162
          2.948525905609131 3.0087287425994873 3.0643041133880615 3.118145704269409 3.1779868602752686 3.2404251098632812
          3.3044307231903076 3.3698792457580566 3.4336373805999756 3.500687599182129 3.574281930923462 3.653184413909912
          3.739361524581909 3.835836172103882 3.9414429664611816 4.049734115600586 3.2430386543273926 2.9260220527648926
          2.628580331802368 2.354365825653076 2.104374885559082 1.8775485754013062 1.6821250915527344 1.5221830606460571
          1.3881028890609741 1.2840081453323364 1.223069667816162 1.1971780061721802 1.1943681240081787 1.213079571723938
          1.251190423965454 1.3064900636672974 1.377219319343567 1.460930585861206 1.5509189367294312 1.6410540342330933
          1.7315421104431152 1.8229660987854004 1.9155362844467163 2.005938768386841 2.0909764766693115 2.171550989151001
          2.244150400161743 2.3125405311584473 2.3755133152008057 2.43495512008667 2.4917664527893066 2.548352003097534
          2.603668689727783 2.659210205078125 2.7163445949554443 2.77111554145813 2.8252928256988525 2.881138324737549
          2.942079544067383 3.0060274600982666 3.071140766143799 3.136507987976074 3.2013890743255615 3.270737648010254
          3.3486523628234863 3.433501720428467 3.5282459259033203 3.631850242614746 3.7412283420562744 3.852161169052124
          3.2724525928497314 2.942991018295288 2.633798599243164 2.3474066257476807 2.087517499923706 1.8516494035720825
          1.6487312316894531 1.475960373878479 1.330862283706665 1.2168703079223633 1.143117070198059 1.1041394472122192
          1.090041160583496 1.0969877243041992 1.1237151622772217 1.1695222854614258 1.232475996017456 1.309809923171997
          1.3942596912384033 1.4800266027450562 1.5661108493804932 1.6529977321624756 1.7382991313934326 1.8206862211227417
          1.9003065824508667 1.9753594398498535 2.045496940612793 2.1100220680236816 2.1707210540771484 2.227761745452881
          2.2821269035339355 2.334928274154663 2.3872222900390625 2.4397120475769043 2.4903433322906494 2.5407934188842773
          2.5927908420562744 2.6502978801727295 2.7122576236724854 2.7767395973205566 2.8420848846435547 2.908353567123413
          2.9778225421905518 3.0522661209106445 3.135491371154785 3.2280561923980713 3.3301568031311035 3.438981056213379
          3.551788330078125 3.6657958030700684 3.306187629699707 2.966845750808716 2.645667314529419 2.3479065895080566
          2.0769033432006836 1.836174488067627 1.626822590827942 1.44135320186615 1.2830010652542114 1.157440185546875
          1.070509433746338 1.019995093345642 0.9946797490119934 0.9892271757125854 1.0044893026351929 1.0379844903945923
          1.0911494493484497 1.1610299348831177 1.238352656364441 1.3193095922470093 1.40193510055542 1.484237790107727
          1.5641735792160034 1.640968680381775 1.7147845029830933 1.7839231491088867 1.8479695320129395 1.9074238538742065
          1.9649485349655151 2.0209267139434814 2.072632074356079 2.123271942138672 2.1741514205932617 2.222437858581543
          2.271487236022949 2.31998872756958 2.370497941970825 2.425581932067871 2.4868106842041016 2.5526084899902344
          2.6210029125213623 2.6902987957000732 2.7641730308532715 2.8457515239715576 2.9359095096588135 3.035806179046631
          3.1435179710388184 3.256138324737549 3.371572256088257 3.488273859024048 3.3444571495056152 2.9984512329101562
          2.6674039363861084 2.356886148452759 2.076617956161499 1.830267071723938 1.6140167713165283 1.4218246936798096
          1.2527711391448975 1.1145859956741333 1.0129104852676392 0.9482578635215759 0.9103488922119141 0.8908688426017761
          0.8921923637390137 0.9128656983375549 0.9548247456550598 1.0148144960403442 1.084640383720398 1.159008502960205
          1.235811471939087 1.3130288124084473 1.3877536058425903 1.4603170156478882 1.530656099319458 1.5962191820144653
          1.6558001041412354 1.7101776599884033 1.7629475593566895 1.8135361671447754 1.864043951034546 1.9140136241912842
          1.9630849361419678 2.0098280906677246 2.0565688610076904 2.104632616043091 2.1541810035705566 2.2090532779693604
          2.270698070526123 2.338470935821533 2.4097635746002197 2.484372854232788 2.565255880355835 2.6545956134796143
          2.7522315979003906 2.856882333755493 2.9682233333587646 3.083164691925049 3.1999802589416504 3.317734956741333
          3.393231153488159 3.0367984771728516 2.6960556507110596 2.3767857551574707 2.0897016525268555 1.8376007080078125
          1.614532232284546 1.4152026176452637 1.2403484582901 1.0917234420776367 0.9740724563598633 0.8911332488059998
          0.8364686965942383 0.801136314868927 0.7868945598602295 0.7946375608444214 0.8254136443138123 0.8724179863929749
          0.9318779706954956 0.9983810186386108 1.069714069366455 1.1414159536361694 1.2117135524749756 1.2797744274139404
          1.3457527160644531 1.409225344657898 1.4657773971557617 1.5176011323928833 1.5666950941085815 1.612998604774475
          1.6599397659301758 1.7068912982940674 1.7528572082519531 1.7996854782104492 1.846299409866333 1.8951096534729004
          1.9487485885620117 2.0034196376800537 2.0655977725982666 2.1355350017547607 2.212097406387329 2.2942698001861572
          2.3828835487365723 2.4781594276428223 2.5810658931732178 2.689840793609619 2.8025171756744385 2.9186227321624756
          3.0368266105651855 3.15620493888855 3.4495675563812256 3.0856754779815674 2.7351980209350586 2.4078125953674316
          2.114124059677124 1.8554282188415527 1.6246556043624878 1.4211523532867432 1.2394617795944214 1.0801115036010742
          0.9479082226753235 0.8454539775848389 0.7707186937332153 0.7195554971694946 0.6904895305633545 0.6846042275428772
          0.7005901336669922 0.733493983745575 0.7818993926048279 0.840965211391449 0.9059152007102966 0.9712901711463928
          1.037251353263855 1.1022615432739258 1.1648563146591187 1.2242939472198486 1.277014970779419 1.3265990018844604
          1.3733047246932983 1.4154260158538818 1.4587607383728027 1.5031486749649048 1.54862380027771 1.5957010984420776
          1.6439276933670044 1.6954162120819092 1.750386357307434 1.8102744817733765 1.8753613233566284 1.9482775926589966
          2.029503583908081 2.1187307834625244 2.213784694671631 2.314591646194458 2.421509027481079 2.5333011150360107
          2.6476190090179443 2.7645020484924316 2.883134603500366 3.0033135414123535 3.513866424560547 3.139207601547241
          2.781352996826172 2.4480667114257812 2.1509296894073486 1.8849997520446777 1.6464298963546753 1.4343050718307495
          1.2450141906738281 1.0775164365768433 0.9328240752220154 0.8133501410484314 0.7192339301109314 0.6494482755661011
          0.6042656898498535 0.5824534893035889 0.5819544792175293 0.6011887192726135 0.6384024024009705 0.6892514228820801
          0.7461563348770142 0.8062248229980469 0.8670065402984619 0.9266425371170044 0.9850629568099976 1.0414557456970215
          1.0921605825424194 1.138185977935791 1.1803922653198242 1.2210969924926758 1.2626104354858398 1.3063338994979858
          1.3520737886428833 1.4023025035858154 1.4542698860168457 1.5086791515350342 1.5678056478500366 1.631367564201355
          1.703947901725769 1.7813605070114136 1.8678792715072632 1.962130069732666 2.0614311695098877 2.166512966156006
          2.2765467166900635 2.3893637657165527 2.5044496059417725 2.620839834213257 2.738560914993286 2.858193874359131
          3.5866215229034424 3.201620578765869 2.836960554122925 2.5022432804107666 2.2002944946289062 1.9241243600845337
          1.6773889064788818 1.458476185798645 1.2617697715759277 1.0849062204360962 0.9275866746902466 0.7927377820014954
          0.6808354258537292 0.5940149426460266 0.5316466689109802 0.4942006468772888 0.4752167761325836 0.4783962070941925
          0.5029652714729309 0.5439048409461975 0.593068540096283 0.6468228101730347 0.7022890448570251 0.7576220035552979
          0.8101040720939636 0.8608050346374512 0.9087714552879333 0.9533167481422424 0.994857907295227 1.0356404781341553
          1.076354742050171 1.1190390586853027 1.1664202213287354 1.22025465965271 1.2777281999588013 1.3381725549697876
          1.4024544954299927 1.4719487428665161 1.5479520559310913 1.6310511827468872 1.7208954095840454 1.8169474601745605
          1.9192966222763062 2.027595281600952 2.1395366191864014 2.2529520988464355 2.3674395084381104 2.4843616485595703
          2.6024670600891113 2.723294973373413 3.6669673919677734 3.278712272644043 2.911102056503296 2.571298599243164
          2.2614336013793945 1.9772263765335083 1.7225894927978516 1.4962782859802246 1.2916762828826904 1.1072654724121094
          0.9388134479522705 0.7917775511741638 0.6627039313316345 0.5575090646743774 0.477977454662323 0.4220483899116516
          0.3854641914367676 0.371931254863739 0.3813468813896179 0.41034170985221863 0.4500296115875244 0.49653148651123047
          0.5454819798469543 0.5949479341506958 0.643480122089386 0.6910064220428467 0.7368230819702148 0.7803050875663757
          0.8216687440872192 0.8632375001907349 0.9036704301834106 0.946414053440094 0.9956754446029663 1.0524084568023682
          1.1155753135681152 1.1826975345611572 1.2532174587249756 1.3278790712356567 1.4067723751068115 1.4931895732879639
          1.5855611562728882 1.6821914911270142 1.784422755241394 1.8936160802841187 2.0065231323242188 2.120877504348755
          2.2361221313476562 2.354090929031372 2.4739983081817627 2.5948843955993652 3.7564024925231934 3.370314121246338
          3.002232551574707 2.655749797821045 2.3370156288146973 2.0439138412475586 1.7811909914016724 1.5462223291397095
          1.3346182107925415 1.1418728828430176 0.9646803736686707 0.8049948215484619 0.6638987064361572 0.5443320870399475
          0.4481225609779358 0.3741142153739929 0.32013046741485596 0.287442147731781 0.28033560514450073 0.29579082131385803
          0.324738472700119 0.3622800409793854 0.40475594997406006 0.4488941431045532 0.4934808313846588 0.537131667137146
          0.5802372694015503 0.622050404548645 0.6626490354537964 0.7036945819854736 0.74625563621521 0.7915662527084351
          0.8435527682304382 0.9031140208244324 0.970013439655304 1.0416549444198608 1.1161370277404785 1.1949068307876587
          1.2771875858306885 1.36504328250885 1.4577397108078003 1.5553383827209473 1.6578527688980103 1.7663179636001587
          1.8785463571548462 1.993018627166748 2.1092276573181152 2.22847580909729 2.3493993282318115 2.470100164413452
          3.8552026748657227 3.4739484786987305 3.1071059703826904 2.7580759525299072 2.4312310218811035 2.127847194671631
          1.8551322221755981 1.6108700037002563 1.3900994062423706 1.1858707666397095 0.9988263845443726 0.829545259475708
          0.6767300963401794 0.5458158254623413 0.43800389766693115 0.34966227412223816 0.28031203150749207 0.2305113673210144
          0.2055899202823639 0.2055949866771698 0.22314335405826569 0.2509021461009979 0.2853023111820221 0.323368638753891
          0.3628491163253784 0.4022864103317261 0.4413584768772125 0.47960326075553894 0.5189570784568787 0.5613124370574951
          0.606926441192627 0.6553381085395813 0.7102020382881165 0.7718135118484497 0.8398059010505676 0.9120493531227112
          0.9874532222747803 1.0673059225082397 1.152748465538025 1.2429739236831665 1.336653232574463 1.4351248741149902
          1.5383625030517578 1.6453551054000854 1.7556567192077637 1.8695425987243652 1.9869577884674072 2.1066513061523438
          2.2269692420959473 2.347416639328003 3.959278106689453 3.5866475105285645 3.222614288330078 2.8722381591796875
          2.539707660675049 2.227999210357666 1.9439700841903687 1.6866904497146606 1.4528921842575073 1.2385791540145874
          1.0414706468582153 0.8622450828552246 0.7010757327079773 0.5605466365814209 0.44190582633018494 0.3416074812412262
          0.25909340381622314 0.19586490094661713 0.15663500130176544 0.14321255683898926 0.14930443465709686 0.16673624515533447
          0.19163663685321808 0.22075289487838745 0.25321272015571594 0.2873690724372864 0.3223148286342621 0.3573872447013855
          0.3959474563598633 0.439333438873291 0.4852810204029083 0.5354297757148743 0.5905910134315491 0.6513434052467346
          0.7187507748603821 0.7900096774101257 0.8651429414749146 0.9457983374595642 1.032610535621643 1.1244781017303467
          1.219565987586975 1.3188151121139526 1.4222302436828613 1.5291550159454346 1.6392146348953247 1.7525146007537842
          1.8691282272338867 1.9879636764526367 2.10771107673645 2.226360559463501 4.072453022003174 3.7065372467041016
          3.346967935562134 2.9958527088165283 2.658510446548462 2.3375203609466553 2.0405492782592773 1.7692903280258179
          1.5243223905563354 1.2982025146484375 1.0915480852127075 0.9026567339897156 0.7318033576011658 0.5825517177581787
          0.4551234841346741 0.3447512090206146 0.2536954879760742 0.17978766560554504 0.12823498249053955 0.1041281521320343
          0.10046934336423874 0.10837717354297638 0.12393993139266968 0.14474283158779144 0.16959553956985474 0.1973222941160202
          0.2270045429468155 0.25899747014045715 0.29570356011390686 0.33693528175354004 0.38075435161590576 0.42897695302963257
          0.4808785915374756 0.539177656173706 0.6034589409828186 0.6725202798843384 0.7475482821464539 0.8288231492042542
          0.9162000417709351 1.0086582899093628 1.1049829721450806 1.206112265586853 1.3112629652023315 1.4187963008880615
          1.5299227237701416 1.6430168151855469 1.7586439847946167 1.8765846490859985 1.994623064994812 2.111531972885132
          4.1964921951293945 3.836531639099121 3.4794139862060547 3.1276907920837402 2.7851686477661133 2.4561150074005127
          2.1478376388549805 1.8643383979797363 1.6031588315963745 1.363762617111206 1.1462205648422241 0.9483217597007751
          0.7693856358528137 0.6124085783958435 0.4769994616508484 0.35806164145469666 0.2589899003505707 0.1763530969619751
          0.11511239409446716 0.08192139863967896 0.07090304046869278 0.07203798741102219 0.08057510107755661 0.0944599136710167
          0.11231870204210281 0.1333160251379013 0.15708301961421967 0.18411093950271606 0.21630266308784485 0.25184500217437744
          0.29160696268081665 0.33523285388946533 0.38302290439605713 0.43713924288749695 0.4973223805427551 0.5633220672607422
          0.6364076137542725 0.7167312502861023 0.8037576675415039 0.8973823189735413 0.9970635771751404 1.1006582975387573
          1.2073897123336792 1.3157477378845215 1.4270446300506592 1.5404069423675537 1.6552951335906982 1.770971655845642
          1.887918472290039 2.0044517517089844 4.330506324768066 3.9749679565429688 3.619248151779175 3.2654693126678467
          2.920485019683838 2.583772897720337 2.265590190887451 1.97003173828125 1.693541169166565 1.439569354057312
          1.2098908424377441 1.0005698204040527 0.8129419684410095 0.6477554440498352 0.5032031536102295 0.3767918050289154
          0.2691184878349304 0.17952555418014526 0.11166493594646454 0.07213199883699417 0.05553070828318596 0.05201523005962372
          0.05558914318680763 0.06372781842947006 0.07567588239908218 0.09080160409212112 0.1090761199593544 0.131318598985672
          0.15759402513504028 0.1872147023677826 0.2210981547832489 0.2584104835987091 0.3009776771068573 0.34974128007888794
          0.40475791692733765 0.4661838412284851 0.5356371998786926 0.6136823296546936 0.7004075646400452 0.7949942946434021
          0.8959915041923523 1.0010994672775269 1.109228253364563 1.2181799411773682 1.3283559083938599 1.4417072534561157
          1.5564770698547363 1.671059489250183 1.7867207527160645 1.9077283143997192 4.475013732910156 4.122157096862793
          3.7656009197235107 3.409127950668335 3.0616047382354736 2.72171688079834 2.392725944519043 2.0842366218566895
          1.7944773435592651 1.5263354778289795 1.2825514078140259 1.0613503456115723 0.8629007935523987 0.6871762871742249
          0.5324083566665649 0.3984004855155945 0.2840617001056671 0.1880146712064743 0.11509291082620621 0.07044532150030136
          0.049322813749313354 0.042064111679792404 0.0420215018093586 0.046375781297683716 0.05407857894897461 0.06486450135707855
          0.07883244007825851 0.0961138978600502 0.11664719879627228 0.1409309059381485 0.16862724721431732 0.20033685863018036
          0.23693247139453888 0.27927783131599426 0.32822275161743164 0.38446155190467834 0.44980040192604065 0.5245254635810852
          0.6095170378684998 0.7028635144233704 0.8033964037895203 0.9085775017738342 1.0169543027877808 1.126646876335144
          1.2380858659744263 1.351121425628662 1.4655883312225342 1.5798015594482422 1.6985456943511963 1.8240177631378174
          4.621117115020752 4.270228862762451 3.915553331375122 3.559803009033203 3.2104690074920654 2.8666269779205322
          2.530541181564331 2.2094027996063232 1.906532645225525 1.623265266418457 1.3640341758728027 1.129276990890503
          0.9198241233825684 0.7335086464881897 0.5683016777038574 0.4261733889579773 0.3041139841079712 0.20229433476924896
          0.12428250908851624 0.07457898557186127 0.04912694916129112 0.03863201662898064 0.03572465106844902 0.03720301389694214
          0.041832335293293 0.04934396594762802 0.059656284749507904 0.07301127165555954 0.08901689201593399 0.10843607783317566
          0.13098695874214172 0.15770098567008972 0.18905363976955414 0.22579258680343628 0.2688462436199188 0.3195137083530426
          0.3796675503253937 0.450408011674881 0.5313618779182434 0.6219183206558228 0.7200618386268616 0.824488639831543
          0.9332574605941772 1.0430516004562378 1.1542483568191528 1.2671494483947754 1.3815683126449585 1.4995698928833008
          1.6216648817062378 1.750885009765625 4.769677639007568 4.417982578277588 4.066671848297119 3.7116928100585938
          3.361448049545288 3.0139336585998535 2.672945976257324 2.3417744636535645 2.0260605812072754 1.7298250198364258
          1.4562582969665527 1.208395004272461 0.9857872724533081 0.7882769703865051 0.612821102142334 0.46167638897895813
          0.33154845237731934 0.22260132431983948 0.13906557857990265 0.083577960729599 0.05364203825592995 0.039627280086278915
          0.03390088304877281 0.0328374020755291 0.03500913083553314 0.040013574063777924 0.04768868535757065 0.05790138244628906
          0.0705079585313797 0.08622711896896362 0.10497179627418518 0.1275070756673813 0.154620960354805 0.1865822672843933
          0.22469286620616913 0.2704954147338867 0.3258988559246063 0.3917452096939087 0.46800029277801514 0.5542271733283997
          0.6494055390357971 0.7518535256385803 0.8595860600471497 0.969202995300293 1.0792808532714844 1.1923094987869263
          1.3092235326766968 1.429315447807312 1.5561583042144775 1.6892616748809814 4.920267105102539 4.570128917694092
          4.2190985679626465 3.8645215034484863 3.5129451751708984 3.1629257202148438 2.8180460929870605 2.4812262058258057
          2.1574456691741943 1.8490911722183228 1.5624686479568481 1.3000907897949219 1.0630466938018799 0.8525515198707581
          0.6663771867752075 0.5051652193069458 0.3662647604942322 0.24917887151241302 0.1582740843296051 0.0971098467707634
          0.061986085027456284 0.043982841074466705 0.035191215574741364 0.031632255762815475 0.03164783865213394 0.03455182537436485
          0.040057215839624405 0.04791221395134926 0.05807843059301376 0.07109850645065308 0.08704782277345657 0.10638243705034256
          0.1299636960029602 0.15826845169067383 0.19253814220428467 0.23448055982589722 0.28572142124176025 0.3469596803188324
          0.41876208782196045 0.5016360878944397 0.5935771465301514 0.6929752826690674 0.7982269525527954 0.9060444235801697
          1.0166254043579102 1.1309638023376465 1.2487943172454834 1.3717966079711914 1.5005594491958618 1.6350829601287842
          5.072409152984619 4.7215986251831055 4.371972560882568 4.019060134887695 3.666661024093628 3.3157074451446533
          2.968916177749634 2.6292591094970703 2.300574541091919 1.9827347993850708 1.6832761764526367 1.4062508344650269
          1.155503511428833 0.930489182472229 0.7312657833099365 0.5584902763366699 0.40886643528938293 0.28151053190231323
          0.18265365064144135 0.11487595736980438 0.07407210767269135 0.05150526389479637 0.03920759633183479 0.032907646149396896
          0.030665555968880653 0.03160407394170761 0.0352448895573616 0.041255779564380646 0.049590252339839935 0.06054770201444626
          0.07447214424610138 0.09150189161300659 0.11257869750261307 0.138299822807312 0.16985318064689636 0.2088061422109604
          0.2568275034427643 0.3147534132003784 0.3832482099533081 0.46237823367118835 0.5512703657150269 0.6483219265937805
          0.7516935467720032 0.8587684035301208 0.9688810110092163 1.082913875579834 1.2010393142700195 1.324265480041504
          1.4539910554885864 1.5888997316360474 5.235428333282471 4.883212089538574 4.531932353973389 4.1786580085754395
          3.8243331909179688 3.472665309906006 3.1244285106658936 2.783060312271118 2.451151132583618 2.1274185180664062
          1.8179954290390015 1.5287760496139526 1.2644721269607544 1.0243228673934937 0.8104482889175415 0.6233296990394592
          0.4608921408653259 0.3220669627189636 0.21382179856300354 0.13795062899589539 0.09049507230520248 0.062476471066474915
          0.04598282650113106 0.03653030842542648 0.031793609261512756 0.030649321153759956 0.03247097507119179 0.03686034679412842
          0.04362679645419121 0.053112272173166275 0.06559176743030548 0.08111949265003204 0.10036131739616394 0.12431522458791733
          0.15405863523483276 0.19108207523822784 0.23672367632389069 0.29242706298828125 0.35924795269966125 0.4363047778606415
          0.5235437750816345 0.6189224720001221 0.7210008502006531 0.8271572589874268 0.9354745745658875 1.0480176210403442
          1.1655776500701904 1.287994623184204 1.416875958442688 1.5523678064346313 5.407605171203613 5.054705619812012
          4.701683521270752 4.346553325653076 3.990567207336426 3.6358695030212402 3.2864694595336914 2.943410873413086
          2.608761787414551 2.2822911739349365 1.9658986330032349 1.6677442789077759 1.391326904296875 1.1363908052444458
          0.9062210321426392 0.7027059197425842 0.524304986000061 0.37283989787101746 0.2532142400741577 0.16757871210575104
          0.11208263039588928 0.07754044234752655 0.05601618438959122 0.04278285801410675 0.03512630611658096 0.03165465593338013
          0.03150723874568939 0.034217964857816696 0.0395953468978405 0.04770917445421219 0.05899408459663391 0.07347244769334793
          0.09154514968395233 0.1144077330827713 0.14313380420207977 0.17916885018348694 0.22377148270606995 0.27901890873908997
          0.34494367241859436 0.4212628901004791 0.5076262950897217 0.6022202372550964 0.7028135061264038 0.8075212836265564
          0.9149535298347473 1.0259159803390503 1.1411052942276 1.2614035606384277 1.388985276222229 1.5260075330734253
          5.587790012359619 5.233891010284424 4.879044532775879 4.524177074432373 4.1669602394104 3.8102664947509766
          3.4589860439300537 3.1134393215179443 2.7768256664276123 2.44754695892334 2.126673936843872 1.8225923776626587
          1.5363364219665527 1.267027735710144 1.021036982536316 0.8002214431762695 0.604333221912384 0.4374125301837921
          0.30406132340431213 0.2060902714729309 0.1402747631072998 0.09776920080184937 0.07024826854467392 0.05222828686237335
          0.04098276048898697 0.03473285213112831 0.03234478458762169 0.0332501120865345 0.0370660163462162 0.04389416426420212
          0.05406850948929787 0.06765162199735641 0.08500588685274124 0.10741456598043442 0.13595452904701233 0.17197102308273315
          0.2171047180891037 0.27233341336250305 0.338274210691452 0.4147743582725525 0.5012664794921875 0.5954025983810425
          0.6947615742683411 0.798191487789154 0.9041333794593811 1.0130963325500488 1.126307725906372 1.2451341152191162
          1.3721556663513184 1.5104705095291138 5.778144836425781 5.421987533569336 5.066324234008789 4.7106242179870605
          4.352375030517578 3.9958012104034424 3.6427226066589355 3.295644760131836 2.955714702606201 2.623117685317993
          2.301013469696045 1.9924259185791016 1.6974631547927856 1.4168261289596558 1.1561907529830933 0.9179248809814453
          0.7036538124084473 0.5186570286750793 0.36856815218925476 0.25550368428230286 0.17705608904361725 0.12493063509464264
          0.08981549739837646 0.06582000106573105 0.050045620650053024 0.040248896926641464 0.035134702920913696 0.033917222172021866
          0.03606559336185455 0.0414663664996624 0.05055400729179382 0.0634155198931694 0.08035510778427124 0.10272923111915588
          0.13176590204238892 0.16864286363124847 0.2148829847574234 0.2714824080467224 0.33841943740844727 0.41582080721855164