<VTKFile type="PolyData" version="1.0" byte_order="LittleEndian" header_type="UInt64">
  <PolyData>
    <Piece NumberOfPoints="2500" NumberOfVerts="0" NumberOfLines="0" NumberOfStrips="0" NumberOfPolys="2401">
      <PointData>
        <DataArray type="Float32" Name="zvalue" NumberOfComponents="1" format="ascii" RangeMin="0.02930259145796299" RangeMax="7.371913433074951">
          7.359886169433594 7.361616134643555 7.3692755699157715 7.371913433074951 7.354125022888184 7.3060808181762695
          7.242264747619629 7.162107944488525 7.066948890686035 6.959726333618164 6.834427833557129 6.69112491607666
          6.536769390106201 6.3795928955078125 6.2129058837890625 6.036602973937988 5.855442047119141 5.676679611206055
          5.495909690856934 5.3218584060668945 5.15634822845459 5.003242492675781 4.870378494262695 4.762065887451172
          4.675594329833984 4.605153560638428 4.548532485961914 4.501246929168701 4.461087703704834 4.428470611572266
          4.4004364013671875 4.375944137573242 4.356412887573242 4.341920852661133 4.3281660079956055 4.3057966232299805
          4.2796196937561035 4.260423183441162 4.248620986938477 4.251715183258057 4.2702789306640625 4.298827648162842
          4.337353706359863 4.38381290435791 4.438745498657227 4.502118110656738 4.573955535888672 4.654256820678711
          4.741876125335693 4.833780765533447 7.100377559661865 7.098281383514404 7.1041789054870605 7.101949691772461
          7.0750017166137695 7.023980140686035 6.954327583312988 6.868356227874756 6.76804780960083 6.658143520355225
          6.532779216766357 6.388912200927734 6.23706579208374 6.078742027282715 5.913421154022217 5.738045692443848
          5.559171199798584 5.385982990264893 5.207382678985596 5.032805442810059 4.869645118713379 4.7191314697265625
          4.589874744415283 4.479926109313965 4.389810562133789 4.316368579864502 4.25028133392334 4.2014923095703125
          4.162161827087402 4.1317901611328125 4.107321739196777 4.082879066467285 4.06008768081665 4.035495758056641
          4.011151313781738 3.9886014461517334 3.9689583778381348 3.9550814628601074 3.951462507247925 3.960742950439453
          3.9836528301239014 4.017457485198975 4.060342311859131 4.108912944793701 4.168856620788574 4.235662937164307
          4.310399055480957 4.391788959503174 4.478283882141113 4.567789077758789 6.837050914764404 6.831943511962891
          6.832614898681641 6.82177209854126 6.783067226409912 6.721441745758057 6.645084857940674 6.554602146148682
          6.449235439300537 6.335095405578613 6.208389759063721 6.068236827850342 5.917436599731445 5.760481357574463
          5.598079204559326 5.429544925689697 5.256047248840332 5.080920219421387 4.9066481590271 4.737124443054199
          4.576554298400879 4.432589530944824 4.306096076965332 4.194992542266846 4.1021409034729 4.026768684387207
          3.9616858959198 3.9078638553619385 3.869325876235962 3.835556983947754 3.8030049800872803 3.773435115814209
          3.745588779449463 3.7169766426086426 3.694610595703125 3.676117420196533 3.662820339202881 3.6582555770874023
          3.6613106727600098 3.6772732734680176 3.706848621368408 3.7450900077819824 3.792466163635254 3.845993995666504
          3.9075472354888916 3.9753313064575195 4.0508131980896 4.131631851196289 4.217184543609619 4.30580472946167
          6.573182582855225 6.560290336608887 6.5542988777160645 6.525924205780029 6.470399379730225 6.401052474975586
          6.315564155578613 6.219665050506592 6.111362457275391 5.991052627563477 5.865898132324219 5.729673385620117
          5.584170818328857 5.431085586547852 5.271317481994629 5.107656955718994 4.941295623779297 4.7706379890441895
          4.597172260284424 4.43157434463501 4.276551723480225 4.138809680938721 4.0150465965271 3.907907724380493
          3.8169562816619873 3.7394657135009766 3.6706342697143555 3.6134769916534424 3.566652536392212 3.527846336364746
          3.490170478820801 3.4548966884613037 3.4271786212921143 3.4033045768737793 3.384955644607544 3.372185707092285
          3.365445613861084 3.368100881576538 3.379972219467163 3.401421308517456 3.435915946960449 3.4791433811187744
          3.529632568359375 3.586714267730713 3.650575876235962 3.7217085361480713 3.7964322566986084 3.8765430450439453
          3.9607584476470947 4.049696445465088 6.306793689727783 6.2867608070373535 6.265580177307129 6.213050365447998
          6.143664360046387 6.064041614532471 5.969951152801514 5.86844539642334 5.756372928619385 5.636542320251465
          5.514548301696777 5.3819098472595215 5.239844799041748 5.094996452331543 4.93887996673584 4.780219078063965
          4.61697244644165 4.4525275230407715 4.289091110229492 4.125967502593994 3.9735891819000244 3.836989402770996
          3.7170865535736084 3.614518642425537 3.525775671005249 3.4478559494018555 3.3716492652893066 3.3056881427764893
          3.2538580894470215 3.2111005783081055 3.1735217571258545 3.1419641971588135 3.115999460220337 3.09684681892395
          3.083315134048462 3.076914072036743 3.076964855194092 3.0857648849487305 3.10394287109375 3.1312661170959473
          3.169717788696289 3.217665910720825 3.272770643234253 3.3314173221588135 3.396702766418457 3.4685139656066895
          3.545076608657837 3.6273670196533203 3.710944414138794 3.801805019378662 6.040066719055176 6.00624418258667
          5.954024314880371 5.8845534324646 5.80746603012085 5.720150947570801 5.620668411254883 5.513792037963867
          5.3999528884887695 5.280973434448242 5.156916618347168 5.024395942687988 4.887310981750488 4.745848655700684
          4.598875522613525 4.445154666900635 4.2882537841796875 4.131172180175781 3.9756767749786377 3.8187336921691895
          3.6709184646606445 3.534545421600342 3.4124550819396973 3.307957410812378 3.2177069187164307 3.1348912715911865
          3.057096242904663 2.990081310272217 2.937384843826294 2.8963751792907715 2.860987663269043 2.8317785263061523
          2.8107948303222656 2.7981255054473877 2.791111469268799 2.7900145053863525 2.794842481613159 2.809629201889038
          2.832407236099243 2.865696668624878 2.90889048576355 2.9623653888702393 3.0193817615509033 3.081308364868164
          3.1476857662200928 3.2196476459503174 3.2977607250213623 3.380293607711792 3.467433214187622 3.559797763824463
          5.764751434326172 5.703080177307129 5.632722854614258 5.552947998046875 5.468582630157471 5.375110626220703
          5.272405624389648 5.160163879394531 5.044975757598877 4.926108360290527 4.7988600730896 4.666084289550781
          4.529189586639404 4.389098644256592 4.248970985412598 4.106036186218262 3.954312801361084 3.806147575378418
          3.658412218093872 3.5099828243255615 3.3582746982574463 3.218000650405884 3.09250807762146 2.9844236373901367
          2.8919551372528076 2.8104407787323 2.7381536960601807 2.673708915710449 2.621800184249878 2.5824811458587646
          2.5522820949554443 2.5314083099365234 2.5161380767822266 2.5083515644073486 2.5062336921691895 2.510636329650879
          2.520646810531616 2.5399107933044434 2.5680112838745117 2.603912591934204 2.6503634452819824 2.7079646587371826
          2.7692041397094727 2.8341586589813232 2.902330160140991 2.976015329360962 3.0556259155273438 3.139038324356079
          3.2281131744384766 3.3233842849731445 5.481103897094727 5.4003777503967285 5.314082622528076 5.224326133728027
          5.129550457000732 5.031307697296143 4.922375679016113 4.808910369873047 4.692511081695557 4.571593761444092
          4.442253589630127 4.308370590209961 4.172819137573242 4.033576488494873 3.8950259685516357 3.756915807723999
          3.618854284286499 3.4759089946746826 3.326781749725342 3.175309419631958 3.0213687419891357 2.8773691654205322
          2.7524356842041016 2.6491875648498535 2.564204216003418 2.48783802986145 2.4164528846740723 2.356187105178833
          2.3111984729766846 2.2765355110168457 2.2525551319122314 2.2368907928466797 2.2284061908721924 2.228314161300659
          2.2320284843444824 2.2402877807617188 2.254683256149292 2.2799203395843506 2.3111584186553955 2.350674629211426
          2.399503231048584 2.4582526683807373 2.522735834121704 2.5919342041015625 2.6626462936401367 2.7376973628997803
          2.8203001022338867 2.906888008117676 2.996980905532837 3.0938382148742676 5.201363563537598 5.103121280670166
          4.997276306152344 4.896069526672363 4.793457984924316 4.690069198608398 4.578546524047852 4.462355136871338
          4.342916488647461 4.220214366912842 4.091700553894043 3.955629587173462 3.8187825679779053 3.6781997680664062
          3.538168430328369 3.3982250690460205 3.260909080505371 3.1220619678497314 2.971193552017212 2.8183162212371826
          2.6668195724487305 2.5269126892089844 2.4079549312591553 2.3124265670776367 2.2320380210876465 2.160051107406616
          2.097553014755249 2.0469822883605957 2.0077714920043945 1.9809173345565796 1.9637945890426636 1.9531762599945068
          1.9492316246032715 1.9529718160629272 1.9654227495193481 1.9805684089660645 1.9993786811828613 2.027338743209839
          2.0636892318725586 2.107307195663452 2.1601479053497314 2.218919515609741 2.28558611869812 2.3564932346343994
          2.4305334091186523 2.5074238777160645 2.592305898666382 2.6813035011291504 2.7746472358703613 2.874387264251709
          4.915502548217773 4.802225112915039 4.679293155670166 4.562892913818359 4.452452659606934 4.341524124145508
          4.229027271270752 4.1105194091796875 3.987156867980957 3.862516164779663 3.7340495586395264 3.5969884395599365
          3.4575154781341553 3.314274311065674 3.169174909591675 3.0259408950805664 2.8860952854156494 2.7451188564300537
          2.601569175720215 2.4537293910980225 2.3109025955200195 2.1801199913024902 2.070483446121216 1.9802790880203247
          1.9061118364334106 1.841691493988037 1.787444829940796 1.7442065477371216 1.7139111757278442 1.6953822374343872
          1.684567928314209 1.680349588394165 1.6822344064712524 1.6908982992172241 1.7045612335205078 1.7261161804199219
          1.752888560295105 1.7856117486953735 1.8258007764816284 1.8722971677780151 1.9268505573272705 1.9893878698349
          2.057893991470337 2.1298210620880127 2.205397129058838 2.2850983142852783 2.3721845149993896 2.461954116821289
          2.5581459999084473 2.6608686447143555 4.623744010925293 4.491497993469238 4.356560230255127 4.226128101348877
          4.1045241355896 3.989100694656372 3.874307155609131 3.754671573638916 3.6299500465393066 3.5022521018981934
          3.3719828128814697 3.234940528869629 3.093935251235962 2.9493987560272217 2.80194354057312 2.65777325630188
          2.5175108909606934 2.3778111934661865 2.2389020919799805 2.0978355407714844 1.9631520509719849 1.8422267436981201
          1.7425755262374878 1.6631934642791748 1.594871163368225 1.5374547243118286 1.4898529052734375 1.453809142112732
          1.429826259613037 1.4178739786148071 1.4146430492401123 1.417327642440796 1.4246830940246582 1.4383049011230469
          1.456600546836853 1.4813302755355835 1.512338399887085 1.5529013872146606 1.598381757736206 1.6480940580368042
          1.704827904701233 1.7691411972045898 1.8383526802062988 1.9122627973556519 1.9890258312225342 2.0713300704956055
          2.159714460372925 2.2531895637512207 2.3521640300750732 2.454620361328125 4.340516567230225 4.195852279663086
          4.0475029945373535 3.9052953720092773 3.7718148231506348 3.6482365131378174 3.5281405448913574 3.406362533569336
          3.279442071914673 3.149030923843384 3.0180153846740723 2.8820390701293945 2.7406225204467773 2.595731496810913
          2.4496240615844727 2.3073320388793945 2.170290946960449 2.0336546897888184 1.898027777671814 1.763221263885498
          1.6359351873397827 1.523362398147583 1.4317948818206787 1.360142469406128 1.30171537399292 1.2517664432525635
          1.2125635147094727 1.1827837228775024 1.1629571914672852 1.1542322635650635 1.155503511428833 1.1634351015090942
          1.17689049243927 1.1949336528778076 1.2167418003082275 1.247316837310791 1.2837883234024048 1.328229546546936
          1.3787999153137207 1.4342716932296753 1.4939831495285034 1.5593805313110352 1.6307125091552734 1.7063350677490234
          1.785886287689209 1.8698254823684692 1.9593886137008667 2.0560410022735596 2.157648801803589 2.2622947692871094
          4.073221206665039 3.9177932739257812 3.7616028785705566 3.611013889312744 3.4677584171295166 3.3336381912231445
          3.204195261001587 3.0780036449432373 2.949404001235962 2.8163347244262695 2.683225631713867 2.5482523441314697
          2.408849000930786 2.2671496868133545 2.1225690841674805 1.9841270446777344 1.8492515087127686 1.7175520658493042
          1.5861990451812744 1.456423282623291 1.336176872253418 1.2312935590744019 1.1470184326171875 1.0821071863174438
          1.030916690826416 0.9898730516433716 0.959052324295044 0.9357874393463135 0.9195193648338318 0.9125030636787415
          0.9151644706726074 0.923976719379425 0.9398729205131531 0.960757315158844 0.9855552315711975 1.0197029113769531
          1.0634616613388062 1.1139706373214722 1.1688045263290405 1.229313611984253 1.295352578163147 1.365832805633545
          1.439399003982544 1.5166422128677368 1.5975916385650635 1.683341145515442 1.775885820388794 1.8748893737792969
          1.977165699005127 2.0844919681549072 3.831164598464966 3.666992664337158 3.505878448486328 3.35137939453125
          3.2036936283111572 3.0611557960510254 2.9208767414093018 2.7861111164093018 2.6526756286621094 2.5180485248565674
          2.383232831954956 2.2479145526885986 2.1109349727630615 1.970670223236084 1.829030156135559 1.691490888595581
          1.5602378845214844 1.4317024946212769 1.3047666549682617 1.1809182167053223 1.0685547590255737 0.9714735150337219
          0.8940181732177734 0.8348223567008972 0.7912075519561768 0.7587286233901978 0.7336820363998413 0.7160653471946716
          0.704945981502533 0.7000141143798828 0.7024200558662415 0.71058589220047 0.7241682410240173 0.743076741695404
          0.7680622935295105 0.802645742893219 0.8508615493774414 0.908630907535553 0.9701493382453918 1.0382955074310303
          1.1110587120056152 1.1874462366104126 1.2659212350845337 1.3460477590560913 1.4291627407073975 1.5172700881958008
          1.6125311851501465 1.7125192880630493 1.8164474964141846 1.9249149560928345 3.6168289184570312 3.4472978115081787
          3.2845048904418945 3.129016160964966 2.9787979125976562 2.832645893096924 2.688089370727539 2.544110059738159
          2.403677463531494 2.2658259868621826 2.1276934146881104 1.9898793697357178 1.8520649671554565 1.712594985961914
          1.5732306241989136 1.437223196029663 1.306787371635437 1.1811343431472778 1.0576971769332886 0.9404503107070923
          0.8337389826774597 0.743714451789856 0.673511266708374 0.6219907402992249 0.5851328372955322 0.5594478845596313
          0.5417497754096985 0.5291253924369812 0.5216636061668396 0.5201348662376404 0.5226184725761414 0.529148519039154
          0.5400408506393433 0.5554301738739014 0.5775644779205322 0.6107433438301086 0.6572256088256836 0.7152940034866333
          0.7849146723747253 0.8607500195503235 0.9409469366073608 1.0247070789337158 1.1100786924362183 1.1963303089141846
          1.2829339504241943 1.3733609914779663 1.4696526527404785 1.5706299543380737 1.6750696897506714 1.7852331399917603
          3.436117649078369 3.2642648220062256 3.098639488220215 2.94159197807312 2.7911787033081055 2.6444149017333984
          2.497443437576294 2.3508358001708984 2.205261468887329 2.0617423057556152 1.919471025466919 1.7775700092315674
          1.6377805471420288 1.4991307258605957 1.3600724935531616 1.2253470420837402 1.096216082572937 0.9722630977630615
          0.8516117334365845 0.7381817698478699 0.636961042881012 0.5528872013092041 0.4890425205230713 0.44461843371391296
          0.4145975708961487 0.3951261639595032 0.3833206295967102 0.376183420419693 0.3729836046695709 0.3731802999973297
          0.3771187961101532 0.3832983374595642 0.39291173219680786 0.405728280544281 0.4253968298435211 0.45567673444747925
          0.49739623069763184 0.5526480674743652 0.6194906234741211 0.6971602439880371 0.7822520732879639 0.8739961981773376
          0.9686791896820068 1.0630919933319092 1.1565278768539429 1.2516757249832153 1.349612832069397 1.4511332511901855
          1.5561623573303223 1.6678255796432495 3.2890536785125732 3.1159117221832275 2.949342966079712 2.789849281311035
          2.6374762058258057 2.490192174911499 2.343472480773926 2.1944339275360107 2.0467424392700195 1.8984230756759644
          1.7521262168884277 1.6072564125061035 1.4657111167907715 1.3272331953048706 1.1902127265930176 1.056473970413208
          0.92690509557724 0.8033696413040161 0.6842686533927917 0.5743215680122375 0.4793991148471832 0.40225985646247864
          0.34489330649375916 0.30700430274009705 0.28322523832321167 0.26907113194465637 0.26119932532310486 0.2577066421508789
          0.25705084204673767 0.25850221514701843 0.2629570960998535 0.2698023319244385 0.27854812145233154 0.29117003083229065
          0.30998101830482483 0.3367099165916443 0.3742237985134125 0.4255080819129944 0.4885854125022888 0.5614807605743408
          0.6443663239479065 0.7351641654968262 0.8336352705955505 0.9401329755783081 1.0474532842636108 1.1490272283554077
          1.2488336563110352 1.3528121709823608 1.4602729082107544 1.5745631456375122 3.1706912517547607 2.994887351989746
          2.827350378036499 2.6652801036834717 2.5112223625183105 2.3613526821136475 2.212474822998047 2.063790798187256
          1.9152085781097412 1.7656621932983398 1.6173490285873413 1.4709713459014893 1.328432321548462 1.1896703243255615
          1.0533339977264404 0.9202670454978943 0.7910550832748413 0.6676511764526367 0.5513713359832764 0.4460102915763855
          0.35708707571029663 0.28818467259407043 0.2387024164199829 0.2077827751636505 0.18927603960037231 0.17909765243530273
          0.17406220734119415 0.1719895303249359 0.17212939262390137 0.17390093207359314 0.17773094773292542 0.18408268690109253
          0.19228367507457733 0.20440180599689484 0.22214378416538239 0.24708117544651031 0.28245019912719727 0.32971397042274475
          0.38990774750709534 0.45976388454437256 0.5386833548545837 0.6261804103851318 0.7214081287384033 0.8241124153137207
          0.9344900250434875 1.0514378547668457 1.1681883335113525 1.2742738723754883 1.385227918624878 1.5012915134429932
          3.0738296508789062 2.895017385482788 2.725313663482666 2.5612926483154297 2.403611421585083 2.25042724609375
          2.0982015132904053 1.9479297399520874 1.798160195350647 1.649693489074707 1.5017778873443604 1.3558992147445679
          1.214369297027588 1.0751469135284424 0.9396103024482727 0.8069891333580017 0.6785169243812561 0.5566896796226501
          0.4442068040370941 0.3453991115093231 0.26487401127815247 0.2047654390335083 0.1643962860107422 0.13985681533813477
          0.12630149722099304 0.11904561519622803 0.11580014228820801 0.11470623314380646 0.1149020865559578 0.11632811278104782
          0.11878898739814758 0.12328500300645828 0.13091297447681427 0.14179985225200653 0.15753714740276337 0.18082408607006073
          0.2138780653476715 0.25864455103874207 0.31665050983428955 0.38550105690956116 0.4624207615852356 0.5470216274261475
          0.6384890079498291 0.7369800806045532 0.843234658241272 0.9569777250289917 1.0773351192474365 1.2054481506347656
          1.3315287828445435 1.4503947496414185 2.996406316757202 2.814009666442871 2.6401543617248535 2.4737472534179688
          2.311440944671631 2.1525471210479736 1.9970656633377075 1.8442740440368652 1.693172812461853 1.5446690320968628
          1.398776888847351 1.2549662590026855 1.1137802600860596 0.9744791388511658 0.8400905132293701 0.7090378403663635
          0.5827804207801819 0.46286168694496155 0.3556734025478363 0.26541510224342346 0.19513750076293945 0.14501623809337616
          0.11352850496768951 0.09552312642335892 0.08595491945743561 0.08101027458906174 0.07896453887224197 0.07836450636386871
          0.0786103829741478 0.07942724227905273 0.08103320002555847 0.0844370648264885 0.09053797274827957 0.09997395426034927
          0.11384505033493042 0.13505588471889496 0.1658686250448227 0.20911230146884918 0.26538023352622986 0.3341042399406433
          0.4113753139972687 0.4947870373725891 0.5842252969741821 0.6802877187728882 0.7845559120178223 0.8950898051261902
          1.0128878355026245 1.1379107236862183 1.2694674730300903 1.4068728685379028 2.936762809753418 2.750378131866455
          2.5712809562683105 2.400007486343384 2.23306941986084 2.0678703784942627 1.9070894718170166 1.7513840198516846
          1.5989344120025635 1.4494284391403198 1.3044155836105347 1.1628738641738892 1.022077202796936 0.8828828930854797
          0.7489795088768005 0.6206400990486145 0.49790313839912415 0.3823021352291107 0.282118022441864 0.20190247893333435
          0.14257174730300903 0.10329853743314743 0.08010467141866684 0.06756162643432617 0.06103881075978279 0.05772766098380089
          0.0563032403588295 0.05584117770195007 0.056056275963783264 0.05674470216035843 0.05821480602025986 0.06124497577548027
          0.06638319045305252 0.07450608909130096 0.08745664358139038 0.1073359027504921 0.13712137937545776 0.17908361554145813
          0.23423904180526733 0.3024132549762726 0.3807976245880127 0.46555912494659424 0.5561965107917786 0.6519435048103333
          0.7549567818641663 0.8638668060302734 0.9798117876052856 1.1007277965545654 1.2273778915405273 1.3604449033737183
          2.8922672271728516 2.700906753540039 2.5180823802948 2.340902805328369 2.167099952697754 1.9961568117141724
          1.829762578010559 1.668999433517456 1.5132092237472534 1.3633217811584473 1.2186150550842285 1.0776530504226685
          0.937024712562561 0.7987072467803955 0.6655678153038025 0.5402067303657532 0.42139142751693726 0.3120209276676178
          0.2206568866968155 0.152102530002594 0.10437954217195511 0.07517894357442856 0.05897603929042816 0.05054134503006935
          0.04616224765777588 0.043874580413103104 0.04287360981106758 0.04258254915475845 0.042817212641239166 0.04373709857463837
          0.04565773159265518 0.0486600436270237 0.053505778312683105 0.06133006513118744 0.07399746775627136 0.09386219829320908
          0.1231205016374588 0.164695605635643 0.21984873712062836 0.28761476278305054 0.3676101267337799 0.45475444197654724
          0.5470022559165955 0.6441104412078857 0.7478102445602417 0.8573271632194519 0.9718296527862549 1.0899814367294312
          1.2128874063491821 1.3412233591079712 2.8596599102020264 2.6651036739349365 2.4770524501800537 2.2942748069763184
          2.1139190196990967 1.9363579750061035 1.7620735168457031 1.5955688953399658 1.4363433122634888 1.28531813621521
          1.1399402618408203 0.997168779373169 0.8568116426467896 0.7202195525169373 0.5886777639389038 0.4661273658275604
          0.35271090269088745 0.2513979971408844 0.17062701284885406 0.11360513418912888 0.07737093418836594 0.05663532391190529
          0.045711420476436615 0.040168821811676025 0.03726959601044655 0.035783540457487106 0.03516879305243492 0.03516009449958801
          0.0357731357216835 0.03722941875457764 0.03944500535726547 0.0428382083773613 0.04813710227608681 0.05665457993745804
          0.07003616541624069 0.0902060940861702 0.12017012387514114 0.16241571307182312 0.21840983629226685 0.28744566440582275
          0.3686935305595398 0.45825281739234924 0.5524094700813293 0.6522737741470337 0.7566655874252319 0.8665276169776917
          0.9801390767097473 1.0975202322006226 1.2194386720657349 1.3470489978790283 2.83843731880188 2.6396093368530273
          2.447392702102661 2.258676290512085 2.07163667678833 1.8866804838180542 1.704018473625183 1.5309264659881592
          1.368416428565979 1.2142689228057861 1.0669742822647095 0.9223158955574036 0.7815688848495483 0.646323561668396
          0.5176684260368347 0.3995419442653656 0.2919081151485443 0.19994260370731354 0.13085991144180298 0.08549175411462784
          0.05910507217049599 0.044898584485054016 0.037673644721508026 0.03403353691101074 0.03216252103447914 0.0312560573220253
          0.031049909070134163 0.03148619830608368 0.032605838030576706 0.03445708751678467 0.03716425970196724 0.04133286327123642
          0.04773496091365814 0.05735984817147255 0.07195796072483063 0.09379282593727112 0.1254236400127411 0.1697276532649994
          0.22740478813648224 0.29823920130729675 0.3806723654270172 0.4721638858318329 0.570220947265625 0.6714904308319092
          0.7772194743156433 0.8869907855987549 1.0013059377670288 1.1198712587356567 1.2420339584350586 1.3684067726135254
          2.828932523727417 2.6243181228637695 2.4262473583221436 2.2323060035705566 2.038179636001587 1.844954252243042
          1.6554423570632935 1.4752546548843384 1.307953953742981 1.1497888565063477 0.9984893798828125 0.8530085682868958
          0.7119936347007751 0.5782552361488342 0.45372065901756287 0.3396354913711548 0.2390175312757492 0.15781688690185547
          0.10094670206308365 0.06645195931196213 0.047850534319877625 0.038274433463811874 0.033393602818250656 0.030921855941414833
          0.029722435399889946 0.02930259145796299 0.029579153284430504 0.030441325157880783 0.03198609501123428 0.0343998447060585
          0.037808895111083984 0.04300447925925255 0.0505431592464447 0.06170446425676346 0.07831757515668869 0.10266343504190445
          0.13738735020160675 0.1844852864742279 0.24454815685749054 0.3173600137233734 0.4017026722431183 0.49494248628616333
          0.5953582525253296 0.6996619701385498 0.8066378831863403 0.9174610376358032 1.0327531099319458 1.1524828672409058
          1.2742717266082764 1.400720477104187 2.8280107975006104 2.6175055503845215 2.410877227783203 2.209969997406006
          2.0102035999298096 1.8103275299072266 1.6146718263626099 1.4287338256835938 1.2548174858093262 1.091569423675537
          0.9362611770629883 0.7892040610313416 0.6479235887527466 0.5161803364753723 0.3956720530986786 0.2871786057949066
          0.19470006227493286 0.1251678317785263 0.08051852881908417 0.055334873497486115 0.042198821902275085 0.03553888574242592
          0.03205220401287079 0.030267558991909027 0.029522432014346123 0.029560524970293045 0.03024183213710785 0.0315556600689888
          0.03361586108803749 0.036670759320259094 0.04104290530085564 0.047307658940553665 0.05621442198753357 0.06931214034557343
          0.08854035288095474 0.1163659393787384 0.1548120379447937 0.2052784562110901 0.2686774432659149 0.344052255153656
          0.43006718158721924 0.5247949361801147 0.626801073551178 0.7340540289878845 0.8431181907653809 0.9551897048950195
          1.0716984272003174 1.191051959991455 1.3139541149139404 1.4402459859848022 2.8351945877075195 2.617587089538574
          2.4025731086730957 2.193094491958618 1.985819935798645 1.7803385257720947 1.5816961526870728 1.3904272317886353
          1.208789348602295 1.0390158891677856 0.8796254396438599 0.7301480174064636 0.5892918705940247 0.45960092544555664
          0.34332075715065 0.24161890149116516 0.15936855971813202 0.10267823934555054 0.0689040794968605 0.050577353686094284
          0.041004180908203125 0.03602122142910957 0.033268269151449203 0.03189263492822647 0.03149097040295601 0.03186405822634697
          0.03293967992067337 0.03474675118923187 0.03742852807044983 0.0413513220846653 0.046743035316467285 0.05430237948894501
          0.06497233361005783 0.08028055727481842 0.10264165699481964 0.13434822857379913 0.17692752182483673 0.23137865960597992
          0.298354834318161 0.37665796279907227 0.46444693207740784 0.5610525608062744 0.6641292572021484 0.7730236053466797
          0.8850857615470886 0.9987627267837524 1.115304946899414 1.2348600625991821 1.3580392599105835 1.4847396612167358
          2.850693464279175 2.6253833770751953 2.4032812118530273 2.184925079345703 1.9698524475097656 1.7588627338409424
          1.5554865598678589 1.357468843460083 1.170408010482788 0.9933121800422668 0.8286648392677307 0.6762620806694031
          0.535660982131958 0.40889573097229004 0.29775702953338623 0.20441803336143494 0.13409429788589478 0.08945083618164062
          0.06450646370649338 0.05105145648121834 0.043536294251680374 0.039378006011247635 0.03700995072722435 0.03581865131855011
          0.03562041372060776 0.036305539309978485 0.03782884031534195 0.04022089019417763 0.04370442032814026 0.04857787489891052
          0.05521298572421074 0.0642637088894844 0.07699181139469147 0.09513465315103531 0.12113301455974579 0.15699030458927155
          0.20408113300800323 0.2628079354763031 0.33328375220298767 0.41433289647102356 0.5046201348304749 0.6034775376319885
          0.7080507874488831 0.8171346783638 0.9312689304351807 1.046366572380066 1.1626091003417969 1.2825253009796143
          1.4060311317443848 1.5336226224899292 2.8783535957336426 2.644047737121582 2.4127109050750732 2.185899496078491
          1.9632142782211304 1.748477816581726 1.537973165512085 1.3313345909118652 1.1365748643875122 0.9542416334152222
          0.7838956117630005 0.6280527710914612 0.4883113503456116 0.3651026785373688 0.26008233428001404 0.1766117364168167
          0.11865491420030594 0.08442381769418716 0.06611348688602448 0.055774860084056854 0.049372393637895584 0.045637667179107666
          0.04331624135375023 0.04222136363387108 0.042228031903505325 0.04323478043079376 0.04527627304196358 0.048409126698970795
          0.052746277302503586 0.05867641419172287 0.06675984710454941 0.07786085456609726 0.09325318783521652 0.11485768854618073
          0.14491553604602814 0.18530181050300598 0.23690341413021088 0.2999938130378723 0.37380990386009216 0.4579901695251465
          0.5511413812637329 0.6511237621307373 0.7564369440078735 0.8666362762451172 0.9806447625160217 1.0967813730239868